ITEM: TIMESTEP
0
ITEM: NUMBER OF ATOMS
192
ITEM: BOX BOUNDS pp pp pp
1.6089158254125557e-01 1.1996108417458862e+01
3.0789158254125493e-01 1.2143108417458864e+01
4.7789158254125574e-01 1.2313108417458862e+01
ITEM: ATOMS element x y z vx vy vz 
O 1.15365 7.35182 2.63797 0.00275459 -0.00138131 0.00714573 
H 1.83926 7.18183 1.90859 0.042193 -0.00109981 0.00978562 
H 1.25419 8.27378 3.04443 -0.0108905 -0.0158691 -0.0188886 
O 11.3319 9.94582 1.89773 -0.00615193 0.00307711 -0.00282664 
H 10.8161 9.09443 2.02518 0.0118084 0.00947248 -0.0179662 
H 0.470166 9.81507 2.24806 0.00968693 0.0134533 0.00290711 
O 5.85068 2.45883 5.56552 0.00240598 0.00443977 0.00971585 
H 6.47192 1.98357 6.19324 0.00121958 -0.0136763 0.0154455 
H 6.44617 2.91209 4.85091 -0.0233231 0.00593126 -0.00219735 
O 10.5526 8.36015 6.31772 -0.00274045 0.00146161 0.000899027 
H 10.6167 7.39228 6.07249 0.00996293 -0.0427725 -0.0113324 
H 10.2377 8.85318 5.57592 -0.00473569 -0.014631 -0.00765919 
O 10.3933 3.98403 9.4929 0.00543133 -0.00520089 8.93235e-05 
H 10.4487 3.60545 8.57536 -0.0207427 -0.00307439 -0.0359897 
H 10.6915 4.93762 9.51145 -0.0165171 -0.00300112 -0.00695933 
O 8.36851 6.89168 9.96939 -0.00116096 -0.00829121 0.00385388 
H 9.38453 6.74479 9.97917 -0.0199569 -0.00808264 -0.026783 
H 8.17668 7.26111 9.06577 -0.00704556 0.00679185 0.0117545 
O 11.5312 5.27195 3.42099 0.00204139 0.000458565 -0.000503855 
H 11.9105 4.69165 2.64863 -0.00522468 -0.0262184 -0.0101278 
H 0.226525 6.12461 3.30633 -0.00691193 0.000831518 0.0242367 
O 6.26656 3.30336 8.18103 -0.00297903 -0.00492746 0.00254261 
H 6.33631 3.80167 9.02496 0.0114797 -0.0146932 0.0265326 
H 7.02268 3.74849 7.63108 0.00459161 0.00224303 0.00560507 
O 1.33186 10.9223 7.68955 0.00602749 0.00328404 -0.00259842 
H 0.609472 11.165 7.03781 -0.0028805 0.0285388 0.00451814 
H 1.79358 11.7692 8.0791 0.0173014 0.0218692 0.00244599 
O 6.18138 0.568665 8.59611 -0.0052466 -0.00179621 -0.00314847 
H 6.68599 0.628471 9.45774 0.000641582 0.0106849 0.0226004 
H 5.85607 1.55685 8.40187 -0.00702787 0.0385737 0.0114834 
O 0.705049 8.19985 8.02061 2.55771e-05 0.0061483 -0.000965369 
H 11.8661 8.3002 7.19221 -0.0433333 -0.0148656 0.00351244 
H 1.0105 9.08882 8.3117 -0.0145515 0.00979037 0.0134618 
O 4.49681 12.102 6.21783 -0.00165572 -0.00352597 -0.000850074 
H 4.84795 1.10645 5.74692 -0.0341112 0.00273177 -0.0300807 
H 4.92239 11.3097 5.85168 -0.0423526 0.02179 0.0392868 
O 2.13172 4.61876 5.15232 -0.0076371 0.0022521 -0.00350487 
H 2.00726 5.61207 5.2963 0.0194582 0.0171275 -0.00117753 
H 2.51253 4.49008 4.14895 0.0130071 -0.0046291 0.00673413 
O 7.14645 10.25 7.35706 -0.00508688 -0.00816244 -0.00433846 
H 6.6629 11.0627 7.7349 -0.00842028 -0.00694285 0.0116482 
H 8.04294 10.3109 7.79036 0.0226891 0.0174653 -0.000719016 
O 4.90933 10.4321 2.97351 -0.00345054 0.00331387 0.00228639 
H 5.12223 10.199 3.92156 -0.0151975 0.0100363 0.0210465 
H 3.87086 10.4447 2.86085 0.00920532 -0.00664171 0.00120735 
O 4.60271 4.89947 6.1558 -0.000139858 -0.00318768 0.001495 
H 5.10826 4.04277 5.97886 0.0106105 0.0244483 -0.028477 
H 3.62757 4.78267 5.88288 0.0153443 0.00953551 -0.0209698 
O 9.11665 5.2677 2.49771 6.06881e-05 -0.00316561 0.00488894 
H 9.23062 4.882 1.60451 0.00179938 -0.0163591 0.000374764 
H 10.12 5.38779 2.86376 0.00471563 0.00410847 -0.0242299 
O 11.0572 5.91984 5.87427 -0.00702891 -0.00755913 0.00511596 
H 11.679 5.56422 6.61039 0.00727393 -0.0160744 -0.00921901 
H 11.3719 5.49192 5.00554 0.0338943 -0.0269592 0.024707 
O 1.00646 4.2562 10.6048 0.00281915 -0.00146255 -0.00194266 
H 11.9812 4.11638 10.102 0.01257 0.0101319 0.0121297 
H 1.68616 4.18899 9.81857 -0.00804009 0.0112168 0.00646574 
O 2.05384 7.20278 5.60926 -0.00228489 0.000899203 0.00156458 
H 2.28826 7.5342 6.55956 0.00557475 0.0217979 0.0148004 
H 1.49536 7.92632 5.15421 -0.015718 0.0311098 -0.0269406 
O 11.8892 7.28789 11.9607 0.00635686 -0.00199385 0.00522713 
H 11.5189 7.33058 1.08681 0.00727646 -0.0033261 0.00312033 
H 1.112 7.37317 12.004 -0.0126701 -0.00484151 -0.00419671 
O 3.9991 0.447436 10.7348 0.00133333 0.00425853 -0.00136422 
H 4.4686 11.4636 10.3713 -0.021522 -0.00873463 -0.0156148 
H 4.54124 1.29555 10.6848 0.00237627 -0.00137096 0.0305764 
O 9.14568 4.19067 12.0299 0.00807744 0.000277796 0.00863096 
H 8.88189 4.5142 11.1431 0.00362982 0.0209858 0.0148214 
H 9.63839 3.30913 11.906 -0.0251213 -0.0116859 -0.00493894 
O 7.95941 3.68952 4.34937 -0.00110455 0.00251516 0.00260229 
H 8.21118 4.01007 5.27556 -0.00646495 0.0217747 -0.0211974 
H 8.63043 4.13456 3.77737 -0.00303136 -0.0231162 0.00126234 
O 2.40882 1.33052 4.64258 -0.00291478 -0.00344891 -0.00561865 
H 2.93897 0.973353 5.48782 0.0210484 -0.00241175 0.02029 
H 1.43223 1.25596 4.85272 0.00405591 -0.0156303 -0.00478893 
O 10.884 6.51103 9.57841 0.00100876 0.000411262 0.000396604 
H 11.2482 6.77331 10.4462 0.0069773 0.00758246 -0.0105199 
H 11.2348 7.14188 8.91529 0.00776983 -0.0160752 0.00681088 
O 2.95256 1.06374 8.11006 0.00334504 0.00171754 0.00428297 
H 3.55619 1.20371 7.3065 -0.0103865 -0.0133901 -0.0208826 
H 3.32999 0.332031 8.62946 0.00101043 0.013007 0.00751479 
O 9.86891 2.41192 7.20998 0.00527698 0.00566121 0.00264498 
H 10.2399 1.94787 6.39503 -0.0196343 0.0129437 0.000907586 
H 10.1202 1.78605 8.00463 0.00125875 -0.0311048 0.00954968 
O 8.30247 1.14258 3.34161 7.56711e-05 -0.00509409 0.00190582 
H 8.05135 1.94836 3.76222 -0.00403001 0.00316184 0.0167509 
H 9.30018 1.10582 2.986 0.00668527 0.016437 -0.0271831 
O 9.6689 7.96094 2.13386 -0.0102193 -0.0016232 -0.00622056 
H 9.46462 7.01244 2.02394 0.0174006 0.010373 0.0117843 
H 8.97857 8.59623 1.72072 -0.00540079 0.0357662 -0.0319593 
O 2.87245 10.0772 12.2464 0.0026187 -0.00406206 0.00435366 
H 2.88853 10.4511 11.3509 0.011336 -0.0432204 6.37696e-05 
H 2.83969 10.8088 1.10986 -0.0177134 -0.000467953 -0.00315853 
O 7.67438 7.84191 7.62529 0.00153907 -0.00120785 -0.00184538 
H 7.48843 8.81208 7.59548 -0.00222114 -0.0113389 0.0173183 
H 8.03142 7.59372 6.68528 0.0220692 0.000741071 -0.0171527 
O 4.73778 3.17804 10.6864 0.00374161 0.002574 -0.00131438 
H 4.76832 3.19207 11.7122 0.00480732 0.00495019 -0.0073035 
H 5.2754 4.06147 10.4642 -0.0169053 0.0122935 -0.0132866 
O 9.77669 0.783553 9.19941 -0.00605867 0.00518176 -0.000472705 
H 9.5451 11.6682 8.91123 -0.0179871 0.00321495 -0.0124367 
H 8.91957 1.22001 9.51692 -0.00465223 -0.0237528 0.0263158 
O 2.75802 3.56837 8.83812 -0.00750778 0.000101263 0.00614091 
H 3.69849 3.6527 9.10108 6.20666e-05 -0.0170911 -0.00963538 
H 2.71031 2.58949 8.56747 0.0210495 0.0204656 0.00167906 
O 3.67875 9.08216 7.76046 -0.00482157 -0.00275557 0.00473635 
H 2.89777 9.69115 7.69486 0.00349802 -0.00640746 0.0130725 
H 4.26744 9.34001 8.52536 -0.00720663 -0.0256089 -0.00905393 
O 5.03554 2.86838 1.46619 -0.00105662 -0.000150388 0.0015693 
H 5.39002 1.9347 1.40939 -0.00491594 -0.0143659 -0.0096252 
H 5.71769 3.50645 1.93434 0.0173341 0.0104353 -0.00929268 
O 11.0713 1.7101 11.6673 -0.00480258 0.00354858 0.00265997 
H 10.6661 1.47339 10.6748 -0.0124019 -0.0197044 0.00947998 
H 0.226129 1.83072 11.6707 -0.00186983 -0.015672 0.0109392 
O 5.1603 6.30282 8.27273 -0.000804055 0.000555113 -0.00434548 
H 5.89083 6.79003 7.87809 -0.00450946 -0.0180616 0.0175076 
H 4.85858 5.61206 7.56748 -0.00120708 -0.0119524 0.0152341 
O 8.41664 4.50079 6.67155 3.99862e-05 -0.000455091 0.00339278 
H 8.9997 3.71162 6.88325 -0.017174 0.0244056 -0.0025177 
H 8.99737 5.32969 6.75007 0.00345434 0.0297766 0.00545981 
O 1.62597 9.47145 4.40543 -0.0013996 0.001452 0.00419634 
H 2.51091 9.93852 4.57866 -0.00518722 0.0119451 0.0125721 
H 0.904712 10.1356 4.59552 -0.0204373 -0.0121512 0.0126456 
O 5.83177 6.34022 1.58484 0.00455107 0.000865514 -0.000749042 
H 4.88363 6.367 1.33012 0.0181501 0.00714109 -0.0118442 
H 6.43636 5.89407 0.906264 0.0203869 -0.0299417 -0.0307401 
O 10.6134 9.35984 10.6769 -0.0020595 -0.000306605 0.000299337 
H 11.3829 8.82758 11.0349 0.00173233 -0.00390632 -0.0133 
H 10.3009 9.97637 11.3729 0.000805543 -0.0201849 -0.0100448 
O 0.641049 3.95839 7.01067 -0.0017556 -6.04647e-05 0.00507525 
H 1.19857 4.3055 6.29604 0.00324474 -0.00619267 0.0150199 
H 1.35401 3.752 7.77071 -0.00865705 -0.0217476 0.0065089 
O 7.69881 9.53619 10.713 0.00345681 -0.00252061 0.00048588 
H 7.49999 9.13464 11.6845 0.0155765 0.0193521 -0.000487757 
H 8.2417 8.86193 10.2767 0.0109326 -0.00698488 -0.000548525 
O 9.67349 10.1108 8.28928 0.000247211 0.00254386 0.000302503 
H 10.2756 9.83121 9.09985 0.00716742 0.00154366 0.0132604 
H 10.0449 9.53196 7.58448 -0.00108372 0.0218741 -0.00223866 
O 5.56988 6.73629 4.48677 0.00465267 0.00148289 -0.00402706 
H 5.56589 6.21651 3.60466 0.00872971 -0.00756986 0.00703079 
H 5.01713 6.17709 5.08674 0.00935942 0.0056512 0.0226824 
O 0.682563 3.79036 1.48667 -0.00475079 0.00143445 -0.00365988 
H 1.53751 3.66666 1.991 -0.0168641 0.011611 -0.0121243 
H 0.861944 3.87395 0.513792 -0.00535795 0.0131573 0.0347081 
O 10.6791 0.819296 2.47508 0.00586097 0.00678454 -0.00292204 
H 10.6834 11.6667 2.10697 0.0282466 -0.0015707 0.00774737 
H 10.7182 1.48046 1.71464 0.00812613 0.0226939 -0.00110064 
O 2.13884 11.7856 2.22996 0.00131313 0.000368901 -0.00547745 
H 1.85558 0.602533 1.53825 0.0099139 0.0124254 -0.0249735 
H 2.22027 0.455864 3.09811 0.0192346 -0.020064 -0.0159303 
O 7.95048 7.52553 4.92476 -0.0039269 -0.00241717 -0.00676848 
H 7.03559 7.15982 4.9261 0.0094287 0.00909456 0.0168789 
H 8.46275 7.22398 4.14141 -0.0114229 -0.0333633 -0.0192602 
O 9.10886 10.2366 4.70222 0.00241058 0.00165327 0.000891837 
H 8.74 10.9461 4.07028 0.00477037 0.0116132 -0.0134087 
H 8.36796 9.59492 4.7639 -0.0294546 -0.0226674 0.0130758 
O 11.6658 11.1644 5.52532 -0.00370186 -0.00485549 -0.000255047 
H 10.6598 10.8594 5.48044 0.00856249 0.0278903 0.00408272 
H 11.7011 0.347204 5.34207 -0.00850947 -0.0113805 0.00968864 
O 4.71234 9.2222 5.20609 -0.00256459 0.00389586 -0.00421114 
H 4.29865 8.99061 6.14186 -0.00862702 -0.018646 0.00244555 
H 4.99877 8.4287 4.74193 0.0182669 -0.0115137 -0.0305064 
O 6.2322 0.547888 1.65218 0.002995 -0.000581054 0.000183227 
H 5.63902 11.6684 2.12757 -0.0163991 0.0113711 -9.17761e-06 
H 7.11923 0.513854 2.16951 -0.0125271 -0.0277886 0.0126102 
O 4.97057 9.91449 10.0618 -0.00168071 0.000383563 -0.000587817 
H 4.93526 9.47743 10.9428 -0.00710213 0.00035921 0.00405563 
H 5.98319 9.95307 9.83366 -0.00511519 0.0122621 -0.0174875 
O 1.95794 1.83436 11.8282 0.00151846 0.00685389 -0.00366266 
H 2.14306 2.77682 11.52 -0.00233597 -0.0106396 0.00219609 
H 2.61092 1.19641 11.5177 0.0194242 0.00526726 -0.0126517 
O 6.89308 8.96817 1.41438 0.00285362 0.00426346 -0.00447942 
H 6.26572 9.60374 1.71234 -0.0195647 -0.0173974 -0.0164719 
H 6.37507 8.12502 1.39441 -0.00557803 0.0173176 0.000898316 
O 11.5275 2.01023 5.04078 0.001971 -0.000204685 0.00534143 
H 11.4344 2.34716 4.06471 0.00755246 0.0235373 -0.00180727 
H 11.8315 2.77101 5.63774 0.0232678 0.00979534 0.00377284 
O 2.60674 6.99669 9.76061 0.000555689 0.00169123 -0.00578412 
H 1.76604 7.07249 9.21609 0.00601463 0.00420201 0.0121775 
H 3.40092 6.99376 9.15006 -0.0156984 -0.0239524 -0.0146374 
O 2.88474 3.46835 2.9772 0.00285979 0.000347966 -5.61801e-05 
H 2.73382 2.66151 3.52034 -0.0234657 -0.00116546 -0.0032449 
H 3.7373 3.41936 2.5117 0.00414347 0.00734718 0.0340773 
O 7.74647 0.408077 10.9279 0.00768672 -0.00333993 -0.0109483 
H 8.05937 11.3056 10.9978 0.00312867 0.0186848 -0.0117743 
H 7.36785 0.750737 11.8158 0.0271717 0.0107668 -0.0259511 
O 2.63965 7.53947 0.613169 0.00587476 0.000450518 -0.0060466 
H 2.76109 7.11099 11.5589 0.00249922 -0.0221957 -0.0111983 
H 2.71932 8.54431 0.604378 -0.00272011 -0.00192872 -0.00872935 
O 6.20763 5.38712 10.4117 0.00405536 -0.000518185 -0.000735161 
H 7.05888 5.88617 10.4349 -0.0123616 -0.0119261 -0.0157015 
H 5.56023 5.63265 9.63428 0.0202573 0.00755444 0.0167149 
ITEM: TIMESTEP
500
ITEM: NUMBER OF ATOMS
192
ITEM: BOX BOUNDS pp pp pp
1.6089158254125557e-01 1.1996108417458862e+01
3.0789158254125493e-01 1.2143108417458864e+01
4.7789158254125574e-01 1.2313108417458862e+01
ITEM: ATOMS element x y z vx vy vz 
O 0.436492 8.58209 2.46537 0.00170071 0.00391599 3.93716e-06 
H 1.0308 8.38567 1.71889 0.0125148 -0.00959971 0.00587282 
H 1.10484 8.84889 3.22433 -0.0151712 -0.00923199 -0.0056793 
O 10.4807 10.9278 1.58097 0.00218312 -0.00763593 -0.000104551 
H 11.3809 10.4983 1.68618 0.020812 -2.38983e-05 0.0127421 
H 9.83029 10.506 2.39113 0.0167619 -0.0139866 0.0130641 
O 6.93565 2.24302 5.79986 -0.00170973 0.0012558 0.000305422 
H 6.65584 2.54975 6.71307 0.0137788 0.0176334 -0.0359643 
H 7.38797 3.00571 5.30025 0.00331872 -0.00376375 0.0051354 
O 10.0724 9.50733 6.10109 0.00332119 0.00105652 0.00576339 
H 10.5836 8.6235 6.30884 -0.00889784 0.0237973 -0.00872119 
H 9.5717 9.43515 5.11228 0.0248854 0.0257783 -0.0054353 
O 11.0049 4.23846 10.1616 0.000739695 -0.00239032 0.00137962 
H 11.334 3.93076 9.33916 0.00267615 0.0190597 -0.00357673 
H 10.8583 5.28094 10.2082 -0.0216787 0.0383506 0.0123537 
O 8.63792 6.08794 9.17724 -0.00221583 -0.000365744 -0.00635478 
H 9.43869 6.47156 9.66484 -0.0122985 0.0142994 -0.00557355 
H 8.34095 6.74711 8.50113 -0.0216635 -0.0104422 0.00330065 
O 11.3196 6.5449 3.81945 0.002077 0.0104807 0.00112387 
H 0.293194 6.02322 3.73408 -0.0158415 -0.00341128 0.026953 
H 11.5233 7.44517 3.47712 0.000705537 -0.00286282 0.0161292 
O 7.01821 3.4108 8.33371 -0.00491029 0.00227578 -0.000519123 
H 6.53068 4.23413 8.81145 0.00126951 0.00174877 -0.00774442 
H 7.87374 3.71628 8.02714 0.0172711 -0.0144751 0.00462117 
O 2.46748 10.1284 7.13436 0.000876841 0.00143219 -0.000960247 
H 1.67835 10.559 6.76516 0.000281992 -0.0125365 0.0120112 
H 2.82917 10.7026 7.79056 0.0199648 -0.031506 0.0260469 
O 6.25714 0.787503 9.02375 -0.00331185 -0.00474342 0.000266577 
H 6.62431 0.298993 9.88288 0.0203131 -0.0151924 -0.0259276 
H 6.42196 1.79771 9.10611 0.0282085 0.000855453 -0.00204007 
O 0.545946 8.47984 8.50386 -0.00481213 0.00674404 -0.0078278 
H 0.266027 7.88316 7.71625 0.00645151 -0.00227319 0.0111101 
H 1.54831 8.65107 8.53979 0.00648233 0.00813993 0.0355417 
O 4.4936 0.83259 5.33817 -0.00518485 -0.00102192 0.00704866 
H 5.35604 1.25491 5.55644 -0.0125016 -0.00346898 0.018025 
H 4.5921 11.7212 5.71527 -0.00955921 -0.00290772 -0.00848245 
O 0.875907 4.28502 5.0949 0.00160541 -9.15011e-05 -0.000966254 
H 1.25003 5.16231 5.45049 0.0094477 0.00697752 0.000527505 
H 1.24281 4.06885 4.11177 0.00588734 -0.00256582 -0.0118247 
O 7.56735 10.2655 7.68213 0.00337072 0.00482809 -0.0018079 
H 7.07728 11.0232 8.00713 -0.016134 0.00491954 0.000258049 
H 8.48086 10.5952 7.56766 -0.00539595 0.0107836 -0.0185342 
O 5.01103 10.6066 1.88747 0.00105702 0.0123828 -0.00151131 
H 4.84216 10.0046 2.71619 -0.00801349 0.0138618 0.000455597 
H 4.10526 10.9178 1.5609 -0.00859823 0.00582939 5.82155e-05 
O 4.33068 3.81588 6.25109 -0.004401 -0.00736216 0.00926113 
H 4.45853 3.0332 5.69016 0.0177195 -0.0108856 -0.00668872 
H 4.0544 3.4941 7.23127 -0.0118015 0.019793 0.0141837 
O 10.2185 4.42389 2.89007 -0.00160565 0.000524236 0.00207698 
H 10.3656 4.51268 1.89753 0.00950647 -0.0412394 -0.0065718 
H 10.5078 5.28761 3.27924 -0.0340958 -0.0115 0.0166591 
O 11.2476 7.06048 6.39266 -0.00388298 0.00130278 -0.000236726 
H 11.6851 6.28194 7.00411 0.0195308 -0.015359 0.00298269 
H 11.5788 6.78795 5.51155 -0.016717 0.00511288 0.000677976 
O 0.821535 4.2664 12.1809 -0.00631229 -0.00420127 -0.00108071 
H 12.0155 4.10757 11.4743 -0.00762942 0.0216492 -0.0224925 
H 0.851049 5.27032 12.2846 -0.0149123 -0.00759259 0.00974899 
O 1.95502 6.64098 4.67985 0.00204532 -0.00184119 -0.00110087 
H 2.89428 6.248 4.33754 0.0150334 0.022196 0.0116002 
H 2.012 7.58117 4.63231 -0.0358514 -0.00183144 0.00887176 
O 9.89458 7.29164 1.30781 -0.00137405 -0.00619075 -0.000216252 
H 10.7922 7.42418 1.88798 0.0004213 0.0107672 0.00592763 
H 9.16986 7.39976 1.85613 0.0247745 -0.000213472 -0.00373422 
O 3.90281 11.743 8.77876 0.00222258 0.00161337 -0.00266845 
H 4.03359 10.9443 9.36757 -0.00472784 0.0304499 0.00726068 
H 4.83565 12.1033 8.50386 -0.0138188 0.0129422 0.00439532 
O 9.49941 3.44577 0.510516 0.00405431 -0.00028826 -0.00192492 
H 9.72718 4.00525 11.5541 -0.00915508 0.0237967 -0.0178009 
H 10.0601 2.57695 0.468078 -0.016727 0.00224071 0.0106993 
O 8.09479 4.53213 5.14375 -0.000664685 0.00349328 -0.00281533 
H 8.5945 4.49444 5.98006 0.0072787 -0.0134454 -0.0026662 
H 8.68954 4.60886 4.32694 -0.0206618 0.0167339 0.00309619 
O 2.39519 0.851654 3.51521 0.00660573 -0.00189326 0.000732016 
H 3.11909 0.944233 4.25473 -0.00977456 -0.00969212 0.0306202 
H 1.6234 1.46043 3.76757 -0.0131105 0.0147594 -0.0176305 
O 10.9491 7.12459 10.2908 -0.0013434 0.00536958 0.00807087 
H 10.444 7.84714 10.6192 0.00716045 -0.00374778 0.00420909 
H 11.3989 7.62616 9.63908 0.000857169 -0.0072871 -0.00724071 
O 3.3103 2.59566 8.40202 -0.0143499 0.000770116 0.005951 
H 2.40688 2.60398 7.98528 -0.0160695 -0.00645755 -0.0171866 
H 3.56114 1.62899 8.67708 0.0171283 0.000975411 0.0186844 
O 11.6674 2.74278 7.88053 -0.00109624 -0.00500259 -0.00450733 
H 11.5279 2.46502 6.82722 -0.028527 -0.0222221 -0.0149457 
H 11.1563 1.97813 8.34587 -0.0189756 0.00850239 0.0182574 
O 7.90597 12.0016 4.48435 0.00131388 0.00234955 0.00472616 
H 7.3608 0.907302 5.04853 0.0100783 -0.0342687 0.0154401 
H 8.62533 0.726748 4.06648 0.0258775 0.00442793 0.0120903 
O 7.74628 7.47185 2.76772 -0.00543531 0.00172109 0.000150977 
H 7.29146 7.14344 3.69248 -0.0213058 0.0224662 -0.0161983 
H 7.00599 7.41741 2.0453 -0.0060724 0.0123735 0.0151478 
O 2.41692 9.16402 11.9843 0.00115146 -0.00445988 -0.0049623 
H 3.3587 9.15897 11.4863 -0.00383969 0.0120353 -0.0188618 
H 2.29885 10.1193 0.535942 -0.001845 0.00712663 -0.00163296 
O 7.83729 7.7509 7.46458 0.00376146 -0.00399396 -0.00702571 
H 7.63995 8.72534 7.58044 -0.000356801 0.0131355 -0.0032412 
H 7.90132 7.5271 6.45551 -0.00900729 -0.0103274 -0.0125459 
O 5.07835 3.87861 11.3586 -0.0011361 -0.000110934 -0.000342918 
H 5.88587 3.36336 11.6678 -0.0311959 -0.0332196 0.0290429 
H 5.37971 4.53769 10.6242 0.00107064 0.00349131 -0.0065506 
O 9.91672 0.887481 8.82973 0.0018321 0.000354458 -0.00095027 
H 10.3447 11.8357 8.77835 0.0077335 0.00638411 -0.00703955 
H 9.19375 0.810002 9.55632 0.0116246 -0.00726632 -0.00168608 
O 2.91158 5.0618 9.31975 0.00488705 0.0034261 -0.000815948 
H 3.49044 5.27448 10.0122 0.0133386 -0.0335454 -0.000442639 
H 3.19989 4.15334 9.00486 0.000244105 0.023292 0.0093256 
O 5.31531 9.94274 6.37726 0.00249869 -0.00456714 0.00110442 
H 4.48544 9.93188 7.0295 0.0334109 -3.5179e-05 0.00543748 
H 6.13398 10.1854 6.91717 0.00845267 0.0165423 0.022127 
O 6.91154 2.57769 0.674481 0.00068227 -0.00970081 -0.00483564 
H 6.9685 1.6272 0.907113 0.0179711 -0.00678609 0.0013758 
H 7.85776 2.97805 0.758844 0.0152081 -0.0270824 -0.0177549 
O 10.986 1.38627 0.611948 0.00178043 -0.000313693 -0.000745392 
H 10.6104 0.463529 0.827446 -0.00782829 0.00499358 0.0106372 
H 11.7101 1.22757 11.7579 0.023083 -0.0172108 0.000559377 
O 4.62156 6.2434 7.28841 -0.00296844 0.0033198 -0.00551319 
H 5.22087 6.62976 6.53702 -0.00558737 -0.00319233 0.0224455 
H 4.30028 5.37774 6.92112 0.0141569 0.00408594 -0.0090806 
O 9.27481 4.25926 7.56292 0.00204429 -0.000927162 0.00382045 
H 10.1437 3.7795 7.72083 -0.0100308 -0.0435783 0.000266319 
H 9.09596 4.95874 8.28143 0.014424 -0.00494243 0.0152402 
O 1.83489 9.36606 4.43232 0.00186142 -0.00503352 -0.0029424 
H 2.69786 9.76957 4.40345 -0.0326464 -0.022407 0.013927 
H 1.20727 9.95436 4.96973 0.00111859 0.0176191 -0.0471759 
O 4.14338 5.81883 1.32387 0.000881848 0.00329098 -0.00219153 
H 3.30335 5.97824 0.828336 0.00700585 -0.0188885 -0.00326221 
H 4.50795 4.94606 0.916046 -0.0110678 0.0146213 0.0172343 
O 9.74481 9.22653 11.5391 -0.000325173 -0.00345798 0.00430171 
H 9.93886 8.54129 12.239 -0.000920959 0.00756229 -0.00153999 
H 9.83319 10.1306 11.9984 0.00349039 -0.00096721 0.0214453 
O 0.821113 5.34716 7.7173 -0.00335778 0.00198159 -0.00124911 
H 0.671888 4.38734 7.44383 0.000325744 0.0111931 -0.0209444 
H 1.66615 5.3536 8.28975 0.00605563 0.0201885 -0.00986445 
O 7.06623 9.14682 11.0058 -0.00268308 -0.00242209 0.00080203 
H 6.65102 8.6448 11.7766 -0.00342817 -0.0234748 -0.00805488 
H 8.02234 8.93532 11.0793 0.00339609 -0.0135858 0.00957346 
O 10.7988 10.3741 9.47834 -0.00485527 0.00269941 0.00239194 
H 10.4109 9.90425 10.2641 0.0018267 -0.0300449 0.0154751 
H 11.3729 9.76421 8.92433 0.0408917 0.0178975 0.0303157 
O 4.2585 5.64488 4.01065 -0.00140048 -0.00634756 0.00285258 
H 4.18846 5.51818 3.06403 0.00443336 -0.0211984 -0.00804901 
H 4.45369 4.78396 4.47284 -0.00109317 -0.000624461 0.00274759 
O 1.79523 3.70222 2.73836 0.00433357 -0.0023611 0.00275075 
H 2.72084 3.60824 2.49784 0.00328096 0.00443531 -0.0258015 
H 1.26026 3.69526 1.83809 0.00968111 -0.00237186 0.0159781 
O 9.83687 1.77866 3.22153 0.0030901 0.00157087 0.000638687 
H 9.99658 1.14804 2.4199 -0.00236239 -0.0258824 -0.00658687 
H 9.93667 2.69127 2.87502 0.0246356 -0.00432442 -0.00316999 
O 2.71565 11.662 1.19871 -0.00176907 -0.00475405 0.00189802 
H 2.5292 0.562081 12.4226 -0.0123738 -0.012226 -0.00301798 
H 2.54965 12.1243 2.17589 0.0141596 0.00426158 0.0134165 
O 6.44036 6.6274 4.93884 0.00422977 -0.00290546 -0.00505429 
H 6.99574 5.73815 5.09195 -0.0125372 -0.0119816 -0.00430055 
H 5.56747 6.28948 4.46192 -0.0113236 0.00333599 -0.00345547 
O 9.0475 9.95508 3.49233 0.00212436 0.0010581 -0.00714892 
H 8.40869 10.5872 3.93748 -0.017862 0.0185495 -0.0288313 
H 8.41899 9.28488 3.17485 0.00311396 -0.00543 0.0145541 
O 0.413647 11.2988 5.90393 -0.00379295 -0.0011123 0.00192615 
H 11.4051 10.7529 6.16685 0.00257562 0.00624316 -0.0196467 
H 0.216753 12.2353 5.96599 -0.000288704 0.0277492 0.0138978 
O 4.74468 9.06161 3.87579 0.00730958 0.00431923 0.000906449 
H 5.05659 9.26503 4.76152 -0.0266587 -0.00805561 0.00390034 
H 4.68099 8.05578 3.75538 0.00216959 -0.0024632 0.00109744 
O 7.34116 11.8844 1.64121 0.00267088 0.004972 0.00551708 
H 6.33132 11.5275 1.63805 -0.00730297 0.00387541 -0.0114497 
H 7.4999 11.9094 2.70783 -0.014351 0.00731128 0.00185342 
O 4.38827 9.58631 10.1469 0.0032696 0.00227138 -0.00287634 
H 3.93293 8.85959 9.5955 -0.00110858 -0.00396934 -0.0317374 
H 5.29065 9.2724 10.382 0.00283023 0.0393932 -0.0125431 
O 1.70073 1.66992 11.326 -0.00265859 -0.000957969 -0.0061491 
H 1.42986 2.49787 11.781 0.0143402 -0.0268386 0.0329349 
H 1.42509 1.80116 10.353 0.00484689 0.00841203 -0.00352742 
O 5.72982 8.01748 1.0533 0.00187755 0.000596355 9.87402e-05 
H 5.18633 8.88163 1.40405 0.00643192 0.00346201 0.00983358 
H 5.01598 7.32827 0.835921 0.00443073 -0.0102487 0.00787315 
O 11.5264 2.06177 5.42607 0.00194444 0.00212665 -0.00331007 
H 10.9211 1.9959 4.64894 0.0144546 0.0144473 0.000669614 
H 11.8638 2.98343 5.38787 -0.0140299 0.0191416 0.0171487 
O 2.9868 7.64826 8.70597 -0.00238808 0.00279617 -0.00206857 
H 2.6981 6.73868 9.06089 0.0262455 -0.0217066 -0.0194959 
H 3.53551 7.43212 7.90703 -0.00823938 0.00392344 -0.000622626 
O 4.82249 3.05193 2.58014 -0.0023366 0.000307155 0.00509752 
H 4.37876 2.11198 2.31574 0.00220746 0.00106918 0.00473755 
H 5.62505 3.24895 1.97188 -0.0137581 -0.0166241 0.00127923 
O 7.70288 11.5651 10.9991 0.00392159 0.00311861 0.000668573 
H 7.33767 10.6815 10.7608 -0.00827848 -0.00321717 -0.0209921 
H 7.5994 11.6902 12.1069 0.00844452 -0.0172924 -0.0267389 
O 1.26943 6.75411 11.8247 -0.00194572 -0.000625808 -0.00219249 
H 0.557086 6.74623 11.1676 0.0146915 -0.00341908 -0.00318766 
H 1.63107 7.69667 11.8985 0.0103979 -0.0148893 0.00992535 
O 5.8387 5.66876 9.44801 0.000625759 0.0024374 0.00369494 
H 6.68196 6.19036 9.56505 0.0217092 0.00163873 0.036982 
H 5.27094 6.03272 8.68562 0.00656833 -0.0160005 0.000578392 
ITEM: TIMESTEP
1000
ITEM: NUMBER OF ATOMS
192
ITEM: BOX BOUNDS pp pp pp
1.6089158254125557e-01 1.1996108417458862e+01
3.0789158254125493e-01 1.2143108417458864e+01
4.7789158254125574e-01 1.2313108417458862e+01
ITEM: ATOMS element x y z vx vy vz 
O 1.20361 8.7947 2.40674 0.00436108 -0.00104006 -3.99351e-05 
H 1.62106 9.18065 1.5746 0.0085395 0.0202252 0.00909059 
H 1.70939 9.19588 3.2276 -0.00875809 -0.0170878 0.0139422 
O 10.7415 9.92652 1.82758 0.00565754 -0.00190166 0.00410561 
H 11.675 9.60154 2.09131 0.0221329 0.000850368 -0.00872273 
H 10.0118 9.76841 2.49211 -0.000258691 -0.0214608 0.00130676 
O 6.43982 1.13036 5.05242 0.00436966 0.00336475 -0.000576421 
H 6.87449 1.18196 5.95054 0.0160486 -0.0156216 0.0190426 
H 6.8086 1.98778 4.5052 -0.00470159 -0.0273783 0.00975881 
O 9.67272 9.89885 5.45694 0.00146915 0.00301517 -0.00311945 
H 9.10437 9.26004 6.05726 -0.0133453 -0.0222576 0.00668829 
H 9.22275 9.90499 4.48696 0.0161891 0.000725108 -0.00595609 
O 11.2694 3.76602 10.3289 0.00566419 -0.00141885 0.00244227 
H 11.4711 3.12242 9.63793 0.0224905 0.00543604 0.000543583 
H 11.1384 4.66564 9.80525 0.00637523 -0.0272963 0.0281049 
O 8.89459 6.43781 7.85208 -0.00821669 -0.00214319 0.00248529 
H 9.81563 6.78464 7.70963 -0.00172249 0.0218428 0.000708696 
H 8.291 7.1573 7.41437 -0.013923 0.00484024 -0.00364175 
O 11.9681 7.06608 3.89912 -0.000980181 -0.00040752 -0.00503003 
H 0.853565 6.47318 4.42469 0.00501835 -0.0137766 0.000674032 
H 0.653472 7.71459 3.33932 -0.0209461 0.0286757 0.00677773 
O 6.89385 2.4443 7.71081 0.00197167 0.00130045 0.000342468 
H 6.05089 3.00651 7.79256 0.0131831 -0.0109961 0.019383 
H 7.64068 3.10557 7.35283 0.0131035 -0.0263115 -0.00160955 
O 2.87498 11.2794 7.04531 -0.00767517 -0.00372989 -0.00144833 
H 2.05087 10.6133 7.19377 -0.0160288 -0.00171372 -0.0153121 
H 3.42129 11.3463 7.89955 0.0229077 -0.0261389 -0.00495686 
O 6.50523 1.14169 9.84572 -0.003005 0.0031221 -0.0036435 
H 7.08205 12.072 9.9298 -0.000269382 0.0387359 0.0280696 
H 6.76678 1.63341 9.02117 0.0201288 -0.0138281 0.00787447 
O 1.20839 8.79515 8.25341 -0.00584164 0.00396764 0.00173951 
H 0.618503 8.41325 7.49465 -0.0146317 -0.00594102 0.0115546 
H 2.11352 8.34197 8.16327 0.0176714 -0.0204042 -0.00295828 
O 3.84099 1.36563 5.64678 -4.51002e-05 0.00104039 0.00195303 
H 4.65072 1.06281 5.21072 0.00143004 0.00946586 -0.00465468 
H 3.52177 0.58845 6.20106 0.0182957 -0.0131118 0.00759982 
O 1.44233 4.37934 5.40996 0.00642428 -0.00360738 0.0028897 
H 2.12704 5.10999 5.43651 -0.00191336 -0.00817602 -0.00530312 
H 1.69287 3.87712 4.61067 0.00136632 -0.00788961 -0.0136199 
O 8.46535 11.5481 7.41056 0.00574081 0.00336351 0.00525647 
H 9.04245 11.282 6.64123 -0.0144458 0.00666056 -0.0202511 
H 9.04429 11.836 8.12046 -0.00244186 0.0155713 -0.00637168 
O 4.52787 12.0074 2.58534 0.00178009 0.00412906 0.00350516 
H 4.81057 11.4892 3.36368 -0.00152188 -0.0164363 -0.015161 
H 3.50098 11.9799 2.49606 0.0352646 0.0231761 0.019626 
O 4.29024 3.10382 7.57169 -0.00677373 0.0121629 -0.00641498 
H 4.163 2.47115 6.78087 -0.00367504 0.0293619 -0.021581 
H 3.65283 2.67757 8.27335 -0.00262375 0.00365627 -0.00545552 
O 9.22737 4.31258 2.45447 -0.00078625 -0.00868983 0.00190327 
H 8.9768 4.0714 1.45059 -0.0139444 -0.0184417 0.0135677 
H 9.44986 5.27391 2.54681 0.00721211 -0.000775751 0.00364455 
O 11.1734 7.27189 6.94926 -0.00156041 0.000607097 0.000149667 
H 11.4461 6.40056 7.3424 -0.0205482 -0.00529098 -0.00170906 
H 11.4308 7.37876 6.0316 0.0265283 -0.0240964 -0.0245332 
O 0.666379 4.89758 1.06851 -0.00384525 -0.00243413 -0.00155259 
H 0.902474 4.54964 0.210182 -0.01786 0.0093439 -0.00774842 
H 0.476295 5.8531 0.983942 -0.0248921 -0.0174384 -0.025063 
O 2.82195 6.50122 4.7835 -0.00558054 0.00262732 -0.00560673 
H 3.41596 6.53691 3.9965 0.0112584 -0.0274436 0.0104358 
H 2.57568 7.48169 5.00202 0.00911312 -0.0134833 -0.00194685 
O 9.66108 6.89101 2.63559 -0.0041231 -0.00694137 0.00201934 
H 10.6814 6.8071 2.99251 0.00344329 -0.0288045 -0.0272492 
H 9.3284 7.78229 2.84911 -0.0186603 0.0237646 -0.0165964 
O 4.21324 11.6727 9.20007 -0.00133937 -0.000276343 -0.00142504 
H 4.3276 10.7403 9.60102 0.000261538 -0.0100289 -0.0229543 
H 5.01413 0.395173 9.5069 -0.02012 0.0185883 0.0163371 
O 9.12757 2.85429 12.1323 0.000139433 -0.00493086 0.0127559 
H 9.53087 3.14846 11.2848 -0.0170452 -0.00842911 0.00386108 
H 9.77704 2.16176 12.6193 -0.00945549 -0.015681 0.0118497 
O 7.64696 3.43297 4.36632 0.00194778 0.00398503 0.00601751 
H 7.99735 3.96294 5.14174 -0.0117856 -0.0252091 0.0162667 
H 8.35861 3.67082 3.68228 -0.00593752 0.0327176 -0.00288122 
O 1.49675 0.990169 4.7495 0.00400925 -0.00052329 -0.00841634 
H 2.44958 1.28758 5.08085 0.00388451 0.0137206 0.0175135 
H 0.952637 1.81184 4.63357 -0.00394758 0.0166083 0.0206039 
O 10.6538 7.40129 9.96724 -0.00325806 -0.00281429 -0.00459144 
H 10.0172 7.67927 10.6177 -0.000544372 -0.00458529 0.00600082 
H 10.4956 7.86016 9.03589 0.0135368 -0.0153191 -0.0120883 
O 2.48084 1.98122 9.43601 -0.00414825 0.00336999 -0.00760676 
H 1.75879 2.00161 8.73602 0.0114871 -0.013733 -0.00228559 
H 2.99262 1.10818 9.36532 -0.0203734 -0.00327595 -0.0184024 
O -0.0432444 2.03359 8.1856 -0.00490992 -0.000602296 0.00266464 
H 11.463 2.4389 7.27225 -0.0125062 0.00930462 -0.000570873 
H 11.4449 1.0888 8.38619 0.000234789 -0.00637244 -0.000351359 
O 8.69657 12.0744 3.75664 -0.00185855 -0.00559711 0.00598491 
H 7.8485 0.591591 4.23899 0.00291937 -0.0051158 0.0127031 
H 9.29209 0.975302 3.49955 0.010279 -0.0192252 0.00334081 
O 6.34103 7.91443 3.91296 -0.00766088 0.00309231 -0.00141746 
H 6.15852 6.97693 4.3009 0.0124848 -0.000263895 -0.00516311 
H 6.17388 7.8405 2.9533 0.0218591 -0.0157875 0.000855611 
O 2.52678 9.73321 11.9926 0.00089471 0.00377112 -0.000246267 
H 3.25124 9.79497 11.3608 0.0277947 0.000861286 -0.0120948 
H 2.37887 10.666 0.739043 0.0144697 0.00903336 -0.0074584 
O 7.75581 8.51277 6.51333 -0.00549111 -0.000209044 -0.000292864 
H 7.19845 8.37927 5.7449 -0.00323376 -0.0279737 0.0154072 
H 7.15395 9.2287 7.15709 -0.0116708 0.0050605 0.00224828 
O 4.82575 4.78507 10.8145 0.00151221 0.00476434 -0.00152703 
H 5.28154 3.94756 10.9279 -0.0053134 0.011633 -0.00158986 
H 5.5781 5.35506 10.4199 -0.0202443 -0.0104021 -0.0109333 
O 10.7079 11.9877 9.39995 -0.00144686 -0.000738565 -0.00576427 
H 11.5326 11.4868 9.81148 0.00535799 -0.0291879 -0.0288409 
H 9.93491 11.8171 9.91857 -0.00844035 0.0148432 0.02152 